 -----------------------------------------------
 #p test hf geom=modela opt symm=saveOrientation
 -----------------------------------------------

 (Enter /Users/hhratchian/.gaussian/gdv-current/gdv/l101.exe)
 ----
 test
 ----
 Charge =  0 Multiplicity = 1

 SCF Done:  E(RHF) =  -152.128706919     A.U. after   10 cycles
 SCF Done:  E(RHF) =  -152.131457204     A.U. after   10 cycles
 SCF Done:  E(RHF) =  -152.132941254     A.U. after    9 cycles
 SCF Done:  E(RHF) =  -152.133058441     A.U. after    9 cycles
 SCF Done:  E(RHF) =  -152.133065623     A.U. after    8 cycles
 SCF Done:  E(RHF) =  -152.133066096     A.U. after    8 cycles
 Optimization completed.
    -- Stationary point found.
 Normal termination of Gaussian DV at Wed Nov 13 12:36:38 2019.

 ----------------------------------------------------------------------
 #p test geom=allcheck guess=read chkmth chkbas freq output=mat symm=sa
 veOrientation
 ----------------------------------------------------------------------

 Structure from the checkpoint file:  "test001.chk"
 ----
 test
 ----
 Charge =  0 Multiplicity = 1

                         Standard orientation:
 ---------------------------------------------------------------------
 Center     Atomic      Atomic             Coordinates (Angstroms)
 Number     Number       Type             X           Y           Z
 ---------------------------------------------------------------------
      1          6           0       -0.091529    0.558089    0.049298
      2          8           0       -1.256411   -0.262861   -0.113851
      3          1           0       -0.115855    1.292798   -0.760446
      4          1           0       -0.127462    1.112561    0.995592
      5          6           0        1.230891   -0.241083   -0.023641
      6          1           0       -1.209105   -0.898836    0.644987
      7          1           0        2.078411    0.432839    0.053658
      8          1           0        1.290852   -0.960831    0.788005
      9          1           0        1.298274   -0.777683   -0.964930
 ---------------------------------------------------------------------

 SCF Done:  E(RHF) =  -152.133066096     A.U. after    1 cycles

 The electronic state is 1-A.
 Alpha  occ. eigenvalues --  -20.25670 -11.08956 -11.04279  -1.27742  -0.96630
 Alpha  occ. eigenvalues --   -0.80247  -0.62143  -0.56693  -0.54356  -0.50095
 Alpha  occ. eigenvalues --   -0.47439  -0.40565  -0.35157
 Alpha virt. eigenvalues --    0.56464   0.61793   0.65757   0.68234   0.71926
 Alpha virt. eigenvalues --    0.75093   0.76802   0.78130

 Mulliken charges:
               1
     1  C    0.008748
     2  O   -0.286166
     3  H    0.063643
     4  H    0.047683
     5  C   -0.191021
     6  H    0.169918
     7  H    0.064728
     8  H    0.055519
     9  H    0.066948
 Sum of Mulliken charges =   0.00000

 Dipole moment (field-independent basis, Debye):
    X=              1.0945    Y=             -0.1405    Z=              1.0552  Tot=              1.5268
 Quadrupole moment (field-independent basis, Debye-Ang):
   XX=            -20.6024   YY=            -17.5626   ZZ=            -17.8788
   XY=              0.5534   XZ=             -1.4220   YZ=             -0.9662

  Exact polarizability:      13.275       1.666      13.884      -0.436      -1.784      12.694
 Approx polarizability:       9.941       1.447      10.789       0.418      -1.448      10.912

                      1                      2                      3
                      A                      A                      A
 Frequencies --    236.0340               373.6397               456.2180
 Red. masses --      1.0934                 1.1031                 2.9728
 Frc consts  --      0.0359                 0.0907                 0.3646
 IR Inten    --      1.7511                78.6993                 9.9585
 Raman Activ --      0.2421                 6.2180                 0.7434

                      4                      5                      6
                      A                      A                      A
 Frequencies --    935.6249              1067.0028              1247.7977
 Red. masses --      1.1001                 2.0958                 1.3973
 Frc consts  --      0.5674                 1.4059                 1.2818
 IR Inten    --      2.3251                 0.0837                12.8315
 Raman Activ --      0.1503                 8.2977                 4.5532

                      7                      8                      9
                      A                      A                      A
 Frequencies --   1273.5828              1350.1050              1513.0920
 Red. masses --      1.7790                 2.0725                 1.1978
 Frc consts  --      1.7001                 2.2258                 1.6157
 IR Inten    --     12.8692                 7.4906                 1.5860
 Raman Activ --      5.0408                 6.4406                10.8599

                     10                     11                     12
                      A                      A                      A
 Frequencies --   1660.0512              1723.2088              1745.2080
 Red. masses --      1.4138                 1.2269                 1.3579
 Frc consts  --      2.2955                 2.1466                 2.4367
 IR Inten    --     12.6475                 5.7034                21.9034
 Raman Activ --      2.7585                 6.5362                 8.7719

                     13                     14                     15
                      A                      A                      A
 Frequencies --   1814.6350              1826.3367              1840.6848
 Red. masses --      1.0895                 1.0491                 1.0773
 Frc consts  --      2.1138                 2.0617                 2.1504
 IR Inten    --      1.2133                 2.3408                 0.2297
 Raman Activ --     25.4443                14.3842                 2.8797

                     16                     17                     18
                      A                      A                      A
 Frequencies --   3559.8163              3568.1684              3682.9361
 Red. masses --      1.0665                 1.0398                 1.1095
 Frc consts  --      7.9625                 7.8000                 8.8671
 IR Inten    --     11.2440                 0.7078                 3.9657
 Raman Activ --     33.3238                43.6590                38.8799

                     19                     20                     21
                      A                      A                      A
 Frequencies --   3749.5579              3758.8302              4224.2731
 Red. masses --      1.1088                 1.1094                 1.0677
 Frc consts  --      9.1843                 9.2354                11.2257
 IR Inten    --      1.6412                 0.6398                26.2387
 Raman Activ --     22.6354                27.0175                41.9148

 - Thermochemistry -
 -------------------
 Temperature   298.150 Kelvin.  Pressure   1.00000 Atm.
 Atom     1 has atomic number  6 and mass  12.00000

 Molecular mass:    46.04186 amu.
 Principal axes and moments of inertia in atomic units:
                           1         2         3
     Eigenvalues --    52.81682 201.14766 227.12061
           X            0.99975  -0.01410  -0.01742
           Y            0.01307   0.99822  -0.05813
           Z            0.01821   0.05788   0.99816
 This molecule is an asymmetric top.
 Rotational symmetry number  1.
 Rotational temperatures (Kelvin)      1.63989     0.43060     0.38136
 Rotational constants (GHZ):          34.16982     8.97222     7.94618
 Zero-point vibrational energy     248864.0 (Joules/Mol)
                                   59.47991 (Kcal/Mol)
 Warning -- explicit consideration of   3 degrees of freedom as
           vibrations may cause significant error
 Vibrational temperatures:    339.60   537.58   656.40  1346.16  1535.18
          (Kelvin)           1795.30  1832.40  1942.50  2177.00  2388.44
                             2479.31  2510.97  2610.86  2627.69  2648.33
                             5121.78  5133.80  5298.92  5394.78  5408.12
                             6077.79

 Zero-point correction=                           0.094787 (Hartree/Particle)
 Thermal correction to Energy=                    0.098846
 Thermal correction to Enthalpy=                  0.099790
 Thermal correction to Gibbs Free Energy=         0.069477
 Sum of electronic and zero-point Energies=           -152.038279
 Sum of electronic and thermal Energies=              -152.034220
 Sum of electronic and thermal Enthalpies=            -152.033276
 Sum of electronic and thermal Free Energies=         -152.063589

                     E (Thermal)             CV                S
                      KCal/Mol        Cal/Mol-Kelvin    Cal/Mol-Kelvin
 Total                   62.027             12.093             63.799
 Electronic               0.000              0.000              0.000
 Translational            0.889              2.981             37.406
 Rotational               0.889              2.981             22.405
 Vibrational             60.249              6.131              3.988
 Vibration     1          0.655              1.786              1.833
 Vibration     2          0.745              1.526              1.065
 Vibration     3          0.814              1.347              0.777

 Optimization completed.
    -- Stationary point found.
 Normal termination of Gaussian DV at Wed Nov 13 12:36:40 2019.
