 -----------------------------------
 #p test hf opt symm=saveOrientation
 -----------------------------------

 ----
 test
 ----
 Symbolic Z-matrix:
 Charge = -1 Multiplicity = 1

 SCF Done:  E(RHF) =  -74.0615732884     A.U. after    7 cycles
 SCF Done:  E(RHF) =  -74.0650000117     A.U. after    5 cycles
 SCF Done:  E(RHF) =  -74.0650171928     A.U. after    5 cycles
 Optimization completed.
    -- Stationary point found.
 Normal termination of Gaussian DV at Wed Nov 13 12:36:47 2019.

 ----------------------------------------------------------------------
 #p test geom=allcheck guess=read chkmth chkbas freq output=mat symm=sa
 veOrientation
 ----------------------------------------------------------------------

 Structure from the checkpoint file:  "test003.chk"
 ----
 test
 ----
 Charge = -1 Multiplicity = 1

                         Standard orientation:
 ---------------------------------------------------------------------
 Center     Atomic      Atomic             Coordinates (Angstroms)
 Number     Number       Type             X           Y           Z
 ---------------------------------------------------------------------
      1          8           0        0.000000    0.000000    0.118661
      2          1           0        0.000000    0.000000   -0.949287
 ---------------------------------------------------------------------

 SCF Done:  E(RHF) =  -74.0650171928     A.U. after    1 cycles

 The electronic state is 1-SG.
 Alpha  occ. eigenvalues --  -19.41574  -0.58060   0.07267   0.23311   0.23311
 Alpha virt. eigenvalues --    1.14351

 Mulliken charges:
               1
     1  O   -0.742245
     2  H   -0.257755
 Sum of Mulliken charges =  -1.00000

 Dipole moment (field-independent basis, Debye):
    X=              0.0000    Y=              0.0000    Z=              0.1294  Tot=              0.1294
 Quadrupole moment (field-independent basis, Debye-Ang):
   XX=             -5.9886   YY=             -5.9886   ZZ=             -6.4347
   XY=              0.0000   XZ=              0.0000   YZ=              0.0000

  Exact polarizability:       0.037       0.000       0.037       0.000       0.000       5.038
 Approx polarizability:       0.015       0.000       0.015       0.000       0.000       4.446

                      1
                     SG
 Frequencies --   3188.7063
 Red. masses --      1.0671
 Frc consts  --      6.3926
 IR Inten    --    921.8555
 Raman Activ --     26.8426

 - Thermochemistry -
 -------------------
 Temperature   298.150 Kelvin.  Pressure   1.00000 Atm.
 Atom     1 has atomic number  8 and mass  15.99491

 Molecular mass:    17.00274 amu.
 Principal axes and moments of inertia in atomic units:
                           1         2         3
     Eigenvalues --     0.00000   3.86141   3.86141
           X            0.00000   0.00000   1.00000
           Y            0.00000   1.00000   0.00000
           Z            1.00000   0.00000   0.00000
 This molecule is a prolate symmetric top.
 Rotational symmetry number  1.
 Rotational temperature (Kelvin)     22.43062
 Rotational constant (GHZ):         467.378277
 Zero-point vibrational energy      19072.7 (Joules/Mol)
                                    4.55848 (Kcal/Mol)
 Vibrational temperatures:   4587.84
          (Kelvin)

 Zero-point correction=                           0.007264 (Hartree/Particle)
 Thermal correction to Energy=                    0.009625
 Thermal correction to Enthalpy=                  0.010569
 Thermal correction to Gibbs Free Energy=        -0.009180
 Sum of electronic and zero-point Energies=            -74.057753
 Sum of electronic and thermal Energies=               -74.055392
 Sum of electronic and thermal Enthalpies=             -74.054448
 Sum of electronic and thermal Free Energies=          -74.074197

                     E (Thermal)             CV                S
                      KCal/Mol        Cal/Mol-Kelvin    Cal/Mol-Kelvin
 Total                    6.040              4.968             41.565
 Electronic               0.000              0.000              0.000
 Translational            0.889              2.981             34.437
 Rotational               0.592              1.987              7.128
 Vibrational              4.558              0.000              0.000

 Optimization completed.
    -- Stationary point found.
 Normal termination of Gaussian DV at Wed Nov 13 12:36:48 2019.
