 -----------------------------------
 #p test hf opt symm=saveOrientation
 -----------------------------------

 ---------------------------------
 This job should optimize to a TS.
 ---------------------------------
 Symbolic Z-matrix:
 Charge =  0 Multiplicity = 1

 SCF Done:  E(RHF) =  -74.8415921867     A.U. after    6 cycles
 SCF Done:  E(RHF) =  -74.8517067998     A.U. after    6 cycles
 SCF Done:  E(RHF) =  -74.8524806613     A.U. after    5 cycles
 Optimization completed.
    -- Stationary point found.
 Normal termination of Gaussian DV at Wed Nov 13 12:36:56 2019.

 ----------------------------------------------------------------------
 #p test m11 int=grid=sg1 geom=allcheck guess=read freq output=mat symm
 =saveOrientation
 ----------------------------------------------------------------------

 Structure from the checkpoint file:  "test005.chk"
 ---------------------------------
 This job should optimize to a TS.
 ---------------------------------
 Charge =  0 Multiplicity = 1

                         Standard orientation:
 ---------------------------------------------------------------------
 Center     Atomic      Atomic             Coordinates (Angstroms)
 Number     Number       Type             X           Y           Z
 ---------------------------------------------------------------------
      1          8           0        0.000000    0.000000    0.000000
      2          1           0        0.000000    0.000000    0.932677
      3          1           0        0.000000    0.000000   -0.932677
 ---------------------------------------------------------------------

 SCF Done:  E(RM11) =  -75.0915331848     A.U. after    6 cycles

 The electronic state is 1-SGG.
 Alpha  occ. eigenvalues --  -18.86684  -0.98182  -0.60221  -0.21965  -0.21965
 Alpha virt. eigenvalues --    0.38425   0.78712

 Mulliken charges:
               1
     1  O   -0.506098
     2  H    0.253049
     3  H    0.253049
 Sum of Mulliken charges =   0.00000

 Dipole moment (field-independent basis, Debye):
    X=              0.0000    Y=              0.0000    Z=              0.0000  Tot=              0.0000
 Quadrupole moment (field-independent basis, Debye-Ang):
   XX=             -5.9691   YY=             -5.9691   ZZ=             -2.4245
   XY=              0.0000   XZ=              0.0000   YZ=              0.0000

  Exact polarizability:       0.283       0.000       0.283       0.000       0.000       5.572
 Approx polarizability:       0.180       0.000       0.180       0.000       0.000       5.221

 ******    2 imaginary frequencies (negative Signs) ******

                      1                      2                      3
                     PIU                    PIU                    SGG
 Frequencies --  -2112.3662             -2112.3662              4546.8095
 Red. masses --      1.1259                 1.1259                 1.0078
 Frc consts  --      2.9599                 2.9599                12.2758
 IR Inten    --    708.6078               708.6078                 0.0000

                      4
                     SGU
 Frequencies --   5045.3251
 Red. masses --      1.1259
 Frc consts  --     16.8859
 IR Inten    --    119.1495

 - Thermochemistry -
 -------------------
 Temperature   298.150 Kelvin.  Pressure   1.00000 Atm.
 Atom     1 has atomic number  8 and mass  15.99491

 Molecular mass:    18.01056 amu.
 Principal axes and moments of inertia in atomic units:
                           1         2         3
     Eigenvalues --     0.00000   6.26146   6.26146
           X            0.00000   1.00000   0.00000
           Y            0.00000   0.00000   1.00000
           Z            1.00000   0.00000   0.00000
 This molecule is a prolate symmetric top.
 Rotational symmetry number  2.
 Rotational temperature (Kelvin)     13.83287
 Rotational constant (GHZ):         288.230127
    2 imaginary frequencies ignored.
 Zero-point vibrational energy      57373.7 (Joules/Mol)
                                   13.71264 (Kcal/Mol)
 Vibrational temperatures:   6541.84  7259.10
          (Kelvin)

 Zero-point correction=                           0.021852 (Hartree/Particle)
 Thermal correction to Energy=                    0.024213
 Thermal correction to Enthalpy=                  0.025157
 Thermal correction to Gibbs Free Energy=         0.005525
 Sum of electronic and zero-point Energies=            -75.069681
 Sum of electronic and thermal Energies=               -75.067320
 Sum of electronic and thermal Enthalpies=             -75.066376
 Sum of electronic and thermal Free Energies=          -75.086008

                     E (Thermal)             CV                S
                      KCal/Mol        Cal/Mol-Kelvin    Cal/Mol-Kelvin
 Total                   15.194              4.968             41.320
 Electronic               0.000              0.000              0.000
 Translational            0.889              2.981             34.608
 Rotational               0.592              1.987              6.712
 Vibrational             13.713              0.000              0.000

                           ! Non-Optimized Parameters !
 Normal termination of Gaussian DV at Wed Nov 13 12:36:58 2019.
