 -------------------------------------------------------
 #p test m11 int=grid=sg1 opt=loose symm=saveOrientation
 -------------------------------------------------------

  of the vibrational frequencies so we can test out the projection code
 .
 ----------------------------------------------------------------------
 Symbolic Z-matrix:
 Charge =  0 Multiplicity = 1

 SCF Done:  E(RM11) =  -75.1944139197     A.U. after    7 cycles
 SCF Done:  E(RM11) =  -75.1964925131     A.U. after    7 cycles
 SCF Done:  E(RM11) =  -75.1982500923     A.U. after    6 cycles
 Optimization completed.
    -- Stationary point found.
 Normal termination of Gaussian DV at Wed Nov 13 12:36:52 2019.

 ----------------------------------------------------------------------
 #p test m11 int=grid=sg1 geom=allcheck guess=read freq output=mat symm
 =saveOrientation
 ----------------------------------------------------------------------

 This job is designed to have a fair amount of rotational contamination
  of the vibrational frequencies so we can test out the projection code
 .
 ----------------------------------------------------------------------
 Charge =  0 Multiplicity = 1

                         Standard orientation:
 ---------------------------------------------------------------------
 Center     Atomic      Atomic             Coordinates (Angstroms)
 Number     Number       Type             X           Y           Z
 ---------------------------------------------------------------------
      1          8           0        0.000000    0.000000    0.134154
      2          1           0        0.000000    0.769551   -0.536617
      3          1           0        0.000000   -0.769551   -0.536617
 ---------------------------------------------------------------------

 SCF Done:  E(RM11) =  -75.1982500923     A.U. after    1 cycles

 The electronic state is 1-A1.
 Alpha  occ. eigenvalues --  -19.00486  -1.05500  -0.51803  -0.37459  -0.29075
 Alpha virt. eigenvalues --    0.42685   0.51623

 Mulliken charges:
               1
     1  O   -0.290955
     2  H    0.145478
     3  H    0.145478
 Sum of Mulliken charges =   0.00000

 Dipole moment (field-independent basis, Debye):
    X=              0.0000    Y=              0.0000    Z=             -1.6101  Tot=              1.6101
 Quadrupole moment (field-independent basis, Debye-Ang):
   XX=             -6.1601   YY=             -4.5891   ZZ=             -5.3185
   XY=              0.0000   XZ=              0.0000   YZ=              0.0000

  Exact polarizability:       0.039       0.000       5.594       0.000       0.000       2.952
 Approx polarizability:       0.023       0.000       5.164       0.000       0.000       3.758

                      1                      2                      3
                     A1                     A1                     B2
 Frequencies --   2006.0426              3751.3641              3972.4437
 Red. masses --      1.0751                 1.0523                 1.0751
 Frc consts  --      2.5490                 8.7253                 9.9962
 IR Inten    --      2.8044                57.6814                38.7214

 - Thermochemistry -
 -------------------
 Temperature   298.150 Kelvin.  Pressure   1.00000 Atm.
 Atom     1 has atomic number  8 and mass  15.99491

 Molecular mass:    18.01056 amu.
 Principal axes and moments of inertia in atomic units:
                           1         2         3
     Eigenvalues --     2.87618   4.26273   7.13891
           X            0.00000   0.00000   1.00000
           Y            1.00000   0.00000   0.00000
           Z            0.00000   1.00000   0.00000
 This molecule is an asymmetric top.
 Rotational symmetry number  2.
 Rotational temperatures (Kelvin)     30.11419    20.31889    12.13265
 Rotational constants (GHZ):         627.47786   423.37690   252.80338
 Zero-point vibrational energy      58197.4 (Joules/Mol)
                                   13.90952 (Kcal/Mol)
 Vibrational temperatures:   2886.25  5397.38  5715.46
          (Kelvin)

 Zero-point correction=                           0.022166 (Hartree/Particle)
 Thermal correction to Energy=                    0.024999
 Thermal correction to Enthalpy=                  0.025944
 Thermal correction to Gibbs Free Energy=         0.004335
 Sum of electronic and zero-point Energies=            -75.176084
 Sum of electronic and thermal Energies=               -75.173251
 Sum of electronic and thermal Enthalpies=             -75.172307
 Sum of electronic and thermal Free Energies=          -75.193915

                     E (Thermal)             CV                S
                      KCal/Mol        Cal/Mol-Kelvin    Cal/Mol-Kelvin
 Total                   15.687              5.973             45.478
 Electronic               0.000              0.000              0.000
 Translational            0.889              2.981             34.608
 Rotational               0.889              2.981             10.869
 Vibrational             13.910              0.012              0.001

                           ! Non-Optimized Parameters !
 Normal termination of Gaussian DV at Wed Nov 13 12:36:53 2019.
